                               Psi4 1.3.2 release

  ==> Input File <==

--------------------------------------------------------------------------

# PYTHONPATH must include directory above plugin directory.
#     Define either externally or here, then import plugin.
sys.path.insert(0, './..')
import marte

molecule {
O
H 1 R
H 1 R 2 A

R = .9
A = 104.5
}

set {
  basis sto-3g
}

set marte {
  print 1
}

energy('marte')

marte.exampleFN()
--------------------------------------------------------------------------

    Molecular point group: c2v

    Geometry (in Angstrom), charge = 0, multiplicity = 1:

       Center              X                  Y                   Z               Mass
    ------------   -----------------  -----------------  -----------------  -----------------
         O            0.000000000000     0.000000000000    -0.061664597388    15.994914619570
         H            0.000000000000    -0.711620616369     0.489330954643     1.007825032230
         H            0.000000000000     0.711620616369     0.489330954643     1.007825032230

  Charge       = 0
  Multiplicity = 1
  Basis Set: STO-3G
    Blend: STO-3G

    Orbital Energies [Eh]
    ---------------------

    Doubly Occupied:

       1A1   -20.236192     2A1    -1.300480     1B2    -0.649309
       3A1    -0.460194     1B1    -0.396298

  @RHF Final Energy:   -74.94502100876632

   => Energetics <=

    Nuclear Repulsion Energy =              9.7794061828526395
    One-Electron Energy =                -123.3639077899158849
    Two-Electron Energy =                  38.6394805982969274
    Total Energy =                        -74.9450210087663180

  Dipole Moment: [D]
     X:     0.0000      Y:     0.0000      Z:     1.7986     Total:     1.7986

*** Psi4 exiting successfully. Buy a developer a beer!
